 Gaussian 16, Revision C.01,
 Gaussian 16:  ES64L-G16RevC.01  3-Jul-2019

 ---------------------------------------------
 #p opt wb97xd/genecp nosymm geom=connectivity
 ---------------------------------------------

 ---------------------------------
 Optimization of Rebpy on S0 state
 ---------------------------------
 Symbolic Z-matrix:
 Charge =  0 Multiplicity = 1

 SCF Done:  E(RwB97XD) =  -1374.56999421     A.U. after   18 cycles
 SCF Done:  E(RwB97XD) =  -1374.64161246     A.U. after   17 cycles
 SCF Done:  E(RwB97XD) =  -1374.68123879     A.U. after   17 cycles
 SCF Done:  E(RwB97XD) =  -1374.69212836     A.U. after   16 cycles
 SCF Done:  E(RwB97XD) =  -1374.69212549     A.U. after   17 cycles
 SCF Done:  E(RwB97XD) =  -1374.69484375     A.U. after   14 cycles
 SCF Done:  E(RwB97XD) =  -1374.69471914     A.U. after   14 cycles
 SCF Done:  E(RwB97XD) =  -1374.69494914     A.U. after   13 cycles
 SCF Done:  E(RwB97XD) =  -1374.69500688     A.U. after   13 cycles
 SCF Done:  E(RwB97XD) =  -1374.69501572     A.U. after   12 cycles
 SCF Done:  E(RwB97XD) =  -1374.69501811     A.U. after   11 cycles
 SCF Done:  E(RwB97XD) =  -1374.69501812     A.U. after   11 cycles
 SCF Done:  E(RwB97XD) =  -1374.69501850     A.U. after    9 cycles
 Optimization completed.
    -- Stationary point found.

                          Input orientation:
 ---------------------------------------------------------------------
 Center     Atomic      Atomic             Coordinates (Angstroms)
 Number     Number       Type             X           Y           Z
 ---------------------------------------------------------------------
      1          1           0       -0.023699    0.049225    0.102509
      2          1           0        0.002725    0.057099    2.143271
      3          6           0        0.943799    0.029688   -0.390950
      4          6           0        0.982798    0.041300    2.611377
      5          6           0        1.011928    0.020569   -1.777862
      6          6           0        1.087078    0.042945    3.996085
      7          6           0        2.121923    0.006299    0.353654
      8          6           0        2.141156    0.012064    1.836562
      9          6           0        2.261148   -0.009772   -2.387488
     10          6           0        2.351767    0.017325    4.573103
     11          1           0        2.369835   -0.022505   -3.469701
     12          1           0        2.488623    0.013037    5.652178
     13          7           0        3.328576   -0.020335   -0.245997
     14          7           0        3.363006   -0.009954    2.404692
     15          6           0        3.391005   -0.030670   -1.582881
     16          6           0        3.460281   -0.009841    3.739513
     17          1           0        4.387339   -0.062803   -2.016664
     18          1           0        4.467551   -0.038572    4.147492
     19         75           0        5.097472   -0.199543    1.057427
     20          6           0        5.466358    1.667647    1.045446
     21         17           0        4.397496   -2.599647    1.075755
     22          8           0        5.687186    2.806641    1.038099
     23          6           0        6.464390   -0.458983    2.378237
     24          6           0        6.430313   -0.469593   -0.295730
     25          8           0        7.266718   -0.603881    3.196217
     26          1           0        0.191169    0.061131    4.614896
     27          8           0        7.211785   -0.621140   -1.132482
     28          1           0        0.100225    0.034093   -2.373282
 ---------------------------------------------------------------------

 Alpha  occ. eigenvalues -- -101.62294 -19.32351 -19.32350 -19.31516 -14.52759
 Alpha  occ. eigenvalues --  -14.52758 -10.40014 -10.40013 -10.39769 -10.39740
 Alpha  occ. eigenvalues --  -10.39462 -10.38155 -10.38154 -10.36360 -10.36359
 Alpha  occ. eigenvalues --  -10.35741 -10.35738 -10.35213 -10.35212  -9.49259
 Alpha  occ. eigenvalues --   -7.23631  -7.23221  -7.23212  -3.32026  -1.91497
 Alpha  occ. eigenvalues --   -1.90729  -1.90710  -1.21543  -1.21487  -1.20583
 Alpha  occ. eigenvalues --   -1.12626  -1.10015  -0.96243  -0.95396  -0.94944
 Alpha  occ. eigenvalues --   -0.89377  -0.81622  -0.80498  -0.79516  -0.76152
 Alpha  occ. eigenvalues --   -0.75004  -0.69374  -0.66215  -0.64544  -0.64224
 Alpha  occ. eigenvalues --   -0.64002  -0.63984  -0.61626  -0.60477  -0.57937
 Alpha  occ. eigenvalues --   -0.57297  -0.57167  -0.56568  -0.55356  -0.54387
 Alpha  occ. eigenvalues --   -0.53966  -0.53836  -0.53281  -0.52781  -0.52481
 Alpha  occ. eigenvalues --   -0.52337  -0.51246  -0.50983  -0.50855  -0.49985
 Alpha  occ. eigenvalues --   -0.49353  -0.44663  -0.43313  -0.43217  -0.42095
 Alpha  occ. eigenvalues --   -0.41751  -0.36206  -0.35875  -0.34155  -0.34152
 Alpha  occ. eigenvalues --   -0.31011  -0.28844  -0.28520
 Alpha virt. eigenvalues --   -0.04605  -0.01252  -0.00196   0.01560   0.02347
 Alpha virt. eigenvalues --    0.03523   0.04305   0.04518   0.04810   0.04926
 Alpha virt. eigenvalues --    0.05457   0.06763   0.06820   0.07233   0.07748

 Mulliken charges:
               1
     1  H   -0.789385
     2  H   -0.789420
     3  C    1.499188
     4  C    1.499434
     5  C    0.044975
     6  C    0.045456
     7  C    0.300067
     8  C    0.298921
     9  C    0.837092
    10  C    0.837236
    11  H   -0.591774
    12  H   -0.591820
    13  N    0.020190
    14  N    0.020244
    15  C    0.215565
    16  C    0.215943
    17  H   -0.837124
    18  H   -0.837303
    19  Re   1.544715
    20  C   -0.145892
    21  Cl  -0.446710
    22  O   -0.401374
    23  C    0.028994
    24  C    0.029138
    25  O   -0.349584
    26  H   -0.653603
    27  O   -0.349577
    28  H   -0.653591
 Sum of Mulliken charges =  -0.00000

 Dipole moment (field-independent basis, Debye):
    X=            -10.2018    Y=              3.6565    Z=              0.1179  Tot=             10.8379
 Quadrupole moment (field-independent basis, Debye-Ang):
   XX=           -206.5665   YY=           -163.3878   ZZ=           -108.4497
   XY=             14.8929   XZ=            -10.2446   YZ=              4.1250

 Normal termination of Gaussian 16 at Wed Oct 13 13:45:42 2021.
