 Gaussian 16, Revision C.01,
 Gaussian 16:  ES64L-G16RevC.01  3-Jul-2019

 ----------------------------------------------------------------------
 #p freq=(raman,printderivatives,savenm) wb97xd/genecp nosymm geom=conn
 ectivity
 ----------------------------------------------------------------------

 -------------------------
 Freq of Rebpy on S0 state
 -------------------------
 Symbolic Z-matrix:
 Charge =  0 Multiplicity = 1

                          Input orientation:
 ---------------------------------------------------------------------
 Center     Atomic      Atomic             Coordinates (Angstroms)
 Number     Number       Type             X           Y           Z
 ---------------------------------------------------------------------
      1         75           0        0.000000    0.000000    2.973506
      2          6           0        0.741520    0.000000   -0.000007
      3          6           0       -0.741524    0.000000    0.000007
      4          1           0       -1.020324    0.106469   -2.139981
      5          1           0        1.020624    0.106532   -2.140039
      6          6           0       -1.501258    0.055731   -1.167322
      7          6           0        1.501345    0.055793   -1.167286
      8          6           0       -2.887194    0.053407   -1.081150
      9          6           0        2.887285    0.053470   -1.080935
     10          7           0       -1.325564   -0.060940    1.213055
     11          6           0       -3.480670   -0.006866    0.174743
     12          6           0        3.480564   -0.006913    0.175018
     13          1           0       -4.561423   -0.006971    0.297762
     14          1           0        4.561299   -0.007066    0.298152
     15          7           0        1.325369   -0.061014    1.213077
     16          6           0       -2.661555   -0.061412    1.292993
     17          6           0        2.661330   -0.061556    1.293180
     18          1           0       -3.082493   -0.101318    2.294542
     19          1           0        3.082232   -0.101591    2.294731
     20          6           0        0.000068   -1.888501    3.210539
     21         17           0       -0.000091    2.443349    2.443555
     22          8           0        0.000017   -3.040200    3.350946
     23          6           0        1.337419    0.169251    4.338415
     24          6           0       -1.336786    0.169417    4.339057
     25          8           0        2.165173    0.261434    5.138504
     26          1           0        3.494483    0.101131   -1.983681
     27          8           0       -2.163908    0.261770    5.139780
     28          1           0       -3.494339    0.101010   -1.983935
 ---------------------------------------------------------------------

 SCF Done:  E(RwB97XD) =  -1374.69502521     A.U. after   17 cycles

 Alpha  occ. eigenvalues -- -101.62295 -19.32351 -19.32350 -19.31516 -14.52758
 Alpha  occ. eigenvalues --  -14.52757 -10.40014 -10.40013 -10.39769 -10.39740
 Alpha  occ. eigenvalues --  -10.39462 -10.38155 -10.38154 -10.36360 -10.36359
 Alpha  occ. eigenvalues --  -10.35741 -10.35738 -10.35213 -10.35212  -9.49259
 Alpha  occ. eigenvalues --   -7.23631  -7.23222  -7.23213  -3.32026  -1.91497
 Alpha  occ. eigenvalues --   -1.90729  -1.90710  -1.21543  -1.21487  -1.20583
 Alpha  occ. eigenvalues --   -1.12625  -1.10015  -0.96243  -0.95396  -0.94944
 Alpha  occ. eigenvalues --   -0.89377  -0.81622  -0.80498  -0.79516  -0.76151
 Alpha  occ. eigenvalues --   -0.75004  -0.69374  -0.66215  -0.64544  -0.64224
 Alpha  occ. eigenvalues --   -0.64002  -0.63984  -0.61625  -0.60477  -0.57937
 Alpha  occ. eigenvalues --   -0.57297  -0.57167  -0.56568  -0.55356  -0.54387
 Alpha  occ. eigenvalues --   -0.53965  -0.53836  -0.53281  -0.52781  -0.52481
 Alpha  occ. eigenvalues --   -0.52337  -0.51246  -0.50983  -0.50855  -0.49985
 Alpha  occ. eigenvalues --   -0.49353  -0.44662  -0.43313  -0.43217  -0.42094
 Alpha  occ. eigenvalues --   -0.41751  -0.36206  -0.35875  -0.34156  -0.34152
 Alpha  occ. eigenvalues --   -0.31011  -0.28844  -0.28520
 Alpha virt. eigenvalues --   -0.04605  -0.01252  -0.00196   0.01560   0.02347
 Alpha virt. eigenvalues --    0.03523   0.04305   0.04518   0.04810   0.04926
 Alpha virt. eigenvalues --    0.05457   0.06763   0.06820   0.07233   0.07749

 Mulliken charges:
               1
     1  Re   1.544880
     2  C    0.299300
     3  C    0.300142
     4  H   -0.789329
     5  H   -0.789529
     6  C    1.499229
     7  C    1.499531
     8  C    0.044911
     9  C    0.045161
    10  N    0.020065
    11  C    0.837028
    12  C    0.837050
    13  H   -0.591781
    14  H   -0.591825
    15  N    0.020099
    16  C    0.215646
    17  C    0.215890
    18  H   -0.837107
    19  H   -0.837303
    20  C   -0.145879
    21  Cl  -0.446691
    22  O   -0.401381
    23  C    0.029034
    24  C    0.029122
    25  O   -0.349564
    26  H   -0.653596
    27  O   -0.349527
    28  H   -0.653576
 Sum of Mulliken charges =  -0.00000

 Dipole moment (field-independent basis, Debye):
    X=             -0.0003    Y=             -2.9314    Z=            -10.4339  Tot=             10.8378
 Quadrupole moment (field-independent basis, Debye-Ang):
   XX=           -108.6987   YY=           -162.4468   ZZ=           -164.0924
   XY=              0.0001   XZ=             -0.0014   YZ=             -7.1458

  Exact polarizability:     276.054      -0.001     172.605      -0.003      -1.682     258.080
 Approx polarizability:     329.390      -0.001     228.806      -0.004      -1.528     303.308

                      1                      2                      3
                      A                      A                      A
 Frequencies --     37.6117                46.0039                70.7114
 Red. masses --      7.8101                 6.5190                13.7645
 Frc consts  --      0.0065                 0.0081                 0.0405
 IR Inten    --      0.2074                 0.6864                 0.1852
 Raman Activ --      3.8615                 5.9054                 0.2260

                      4                      5                      6
                      A                      A                      A
 Frequencies --     84.3063                87.3872                93.8732
 Red. masses --      5.2424                14.1640                14.1857
 Frc consts  --      0.0220                 0.0637                 0.0737
 IR Inten    --      2.2410                 0.0360                 0.1971
 Raman Activ --      0.1555                 3.8218                 2.7248

                      7                      8                      9
                      A                      A                      A
 Frequencies --     95.2993                97.3214               103.6812
 Red. masses --     11.7458                16.6770                16.0498
 Frc consts  --      0.0629                 0.0931                 0.1017
 IR Inten    --      2.2135                 0.3082                 4.6812
 Raman Activ --      1.0956                 4.0759                 2.6328

                     10                     11                     12
                      A                      A                      A
 Frequencies --    120.2449               169.4508               196.5593
 Red. masses --      4.6218                 8.5057                 6.5182
 Frc consts  --      0.0394                 0.1439                 0.1484
 IR Inten    --      0.8199                 0.6193                 0.3486
 Raman Activ --      1.3451                 2.6966                 1.3504

                     13                     14                     15
                      A                      A                      A
 Frequencies --    201.4082               252.9017               270.5360
 Red. masses --      8.7904                 5.8894                 4.3185
 Frc consts  --      0.2101                 0.2219                 0.1862
 IR Inten    --      0.8749                 1.7440                 0.1445
 Raman Activ --      0.1949                 1.0129                 2.0378

                     16                     17                     18
                      A                      A                      A
 Frequencies --    278.3312               365.8291               432.0301
 Red. masses --     29.0222                 7.5164                 3.0642
 Frc consts  --      1.3247                 0.5927                 0.3370
 IR Inten    --     27.6410                 0.3363                 5.2186
 Raman Activ --      3.1951                 8.5149                 0.2349

                     19                     20                     21
                      A                      A                      A
 Frequencies --    445.6761               459.1139               467.0637
 Red. masses --      3.9160                 6.5263                 4.2808
 Frc consts  --      0.4583                 0.8105                 0.5502
 IR Inten    --      0.2779                 8.0189                 1.6530
 Raman Activ --      0.3747                 4.0435                 2.8291

                     22                     23                     24
                      A                      A                      A
 Frequencies --    486.1719               486.9917               521.0465
 Red. masses --     14.8720                11.2844                 9.8595
 Frc consts  --      2.0711                 1.5768                 1.5771
 IR Inten    --     16.5302                18.0622                 0.2303
 Raman Activ --     48.4021                 9.0586                 0.0442

                     25                     26                     27
                      A                      A                      A
 Frequencies --    523.5381               548.0723               551.6213
 Red. masses --     14.8880                10.0872                10.9706
 Frc consts  --      2.4043                 1.7852                 1.9668
 IR Inten    --      1.9541                11.0848                 9.1791
 Raman Activ --     43.1782                 0.2333                 0.3572

                     28                     29                     30
                      A                      A                      A
 Frequencies --    568.1938               642.7481               648.1513
 Red. masses --      2.7515                12.3160                12.2217
 Frc consts  --      0.5234                 2.9978                 3.0251
 IR Inten    --      0.0012                 9.9182                12.3800
 Raman Activ --      0.3069                 0.0814                 6.2913

                     31                     32                     33
                      A                      A                      A
 Frequencies --    650.4559               664.6493               666.2825
 Red. masses --      7.2698                 9.2899                 6.9777
 Frc consts  --      1.8122                 2.4179                 1.8251
 IR Inten    --      0.7106                16.7476                 2.1673
 Raman Activ --     22.5450                 3.4676                 0.8913

                     34                     35                     36
                      A                      A                      A
 Frequencies --    672.1070               762.3169               767.5446
 Red. masses --      8.7835                 2.9900                 1.5957
 Frc consts  --      2.3377                 1.0238                 0.5539
 IR Inten    --     10.2097                25.9294                 0.0139
 Raman Activ --     13.9672                 1.2307                 0.1887

                     37                     38                     39
                      A                      A                      A
 Frequencies --    782.0049               787.7467               831.8520
 Red. masses --      1.3831                 5.7622                 2.4715
 Frc consts  --      0.4983                 2.1068                 1.0076
 IR Inten    --     86.5484                 1.0040                 0.2216
 Raman Activ --      0.3811                26.7746                 1.7556

                     40                     41                     42
                      A                      A                      A
 Frequencies --    919.1433               923.4585              1003.3054
 Red. masses --      1.3151                 1.4833                 1.4105
 Frc consts  --      0.6546                 0.7453                 0.8365
 IR Inten    --      0.2272                 0.0119                 0.4241
 Raman Activ --      0.1108                 0.1283                 0.0296

                     43                     44                     45
                      A                      A                      A
 Frequencies --   1005.6161              1036.9622              1037.2898
 Red. masses --      1.4295                 1.3833                 1.3661
 Frc consts  --      0.8517                 0.8764                 0.8660
 IR Inten    --      0.0758                 0.0083                 0.1565
 Raman Activ --      0.1081                 0.2902                 0.1252

                     46                     47                     48
                      A                      A                      A
 Frequencies --   1048.6008              1053.3802              1067.9509
 Red. masses --      7.7467                 7.4657                 5.7810
 Frc consts  --      5.0187                 4.8808                 3.8847
 IR Inten    --      1.5660                 0.1910                 2.2737
 Raman Activ --     26.8439               219.5941                 9.6708

                     49                     50                     51
                      A                      A                      A
 Frequencies --   1101.4026              1106.2503              1142.1963
 Red. masses --      2.1839                 1.6089                 1.5359
 Frc consts  --      1.5609                 1.1601                 1.1806
 IR Inten    --      0.9615                 5.5117                 3.6346
 Raman Activ --     49.7605                 7.7229                13.2954

                     52                     53                     54
                      A                      A                      A
 Frequencies --   1154.7782              1181.8990              1198.3339
 Red. masses --      1.5510                 1.1303                 1.1593
 Frc consts  --      1.2186                 0.9303                 0.9808
 IR Inten    --      1.6802                 5.9688                 2.3758
 Raman Activ --      0.0320                10.2794                17.3863

                     55                     56                     57
                      A                      A                      A
 Frequencies --   1308.5256              1317.4469              1329.4508
 Red. masses --      4.2820                 2.1518                 2.5072
 Frc consts  --      4.3198                 2.2005                 2.6109
 IR Inten    --     17.5711                 0.1912                 0.6423
 Raman Activ --     18.3248                10.5868                51.2426

                     58                     59                     60
                      A                      A                      A
 Frequencies --   1345.5826              1346.1845              1470.5399
 Red. masses --      2.8462                 1.4980                 2.1170
 Frc consts  --      3.0363                 1.5995                 2.6972
 IR Inten    --      0.0510                15.3339                 8.8315
 Raman Activ --    245.6064                 1.5423                11.6500

                     61                     62                     63
                      A                      A                      A
 Frequencies --   1486.4931              1518.2286              1545.9803
 Red. masses --      2.5903                 2.2944                 3.0070
 Frc consts  --      3.3722                 3.1160                 4.2344
 IR Inten    --     44.4077                47.5439                 0.2434
 Raman Activ --      0.1413                 0.1775               170.8429

                     64                     65                     66
                      A                      A                      A
 Frequencies --   1648.4198              1658.4962              1686.9830
 Red. masses --      6.2092                 6.8375                 5.8558
 Frc consts  --      9.9408                11.0810                 9.8188
 IR Inten    --      6.0178                 8.4215                20.4973
 Raman Activ --    109.1822                 0.3292               234.8244

                     67                     68                     69
                      A                      A                      A
 Frequencies --   1693.2928              2002.8392              2021.8908
 Red. masses --      6.6581                13.3242                13.3259
 Frc consts  --     11.2476                31.4908                32.0969
 IR Inten    --     14.6397              1245.6326              1174.8418
 Raman Activ --     57.2793               129.7213                95.3734

                     70                     71                     72
                      A                      A                      A
 Frequencies --   2112.3426              3219.6636              3220.5578
 Red. masses --     13.2694                 1.0888                 1.0892
 Frc consts  --     34.8844                 6.6498                 6.6562
 IR Inten    --   1009.5919                 3.3837                 2.6439
 Raman Activ --     39.1344                96.9840                70.6730

                     73                     74                     75
                      A                      A                      A
 Frequencies --   3236.9115              3237.4120              3246.6505
 Red. masses --      1.0924                 1.0931                 1.0959
 Frc consts  --      6.7436                 6.7501                 6.8057
 IR Inten    --      0.9119                 0.1347                 1.4033
 Raman Activ --     44.6217               173.1202                 5.6582

                     76                     77                     78
                      A                      A                      A
 Frequencies --   3251.0557              3251.9913              3259.6171
 Red. masses --      1.0985                 1.1000                 1.0935
 Frc consts  --      6.8406                 6.8538                 6.8457
 IR Inten    --      0.1025                 3.6201                 3.7108
 Raman Activ --    216.2179                 0.6613               234.2695

 - Thermochemistry -
 -------------------
 Temperature   298.150 Kelvin.  Pressure   1.00000 Atm.
 Atom     1 has atomic number 75 and mass 186.95600

 Molecular mass:   461.97834 amu.
 Principal axes and moments of inertia in atomic units:
                           1         2         3
     Eigenvalues --  5206.989306454.199128802.87259
           X            0.00014   1.00000   0.00003
           Y           -0.03158  -0.00003   0.99950
           Z            0.99950  -0.00015   0.03158
 This molecule is an asymmetric top.
 Rotational symmetry number  1.
 Warning -- assumption of classical behavior for rotation
           may cause significant error
 Rotational temperatures (Kelvin)      0.01663     0.01342     0.00984
 Rotational constants (GHZ):           0.34660     0.27962     0.20502
 Zero-point vibrational energy     498447.8 (Joules/Mol)
                                  119.13188 (Kcal/Mol)
 Warning -- explicit consideration of  28 degrees of freedom as
           vibrations may cause significant error
 Vibrational temperatures:     54.11    66.19   101.74   121.30   125.73
          (Kelvin)            135.06   137.11   140.02   149.17   173.01
                              243.80   282.80   289.78   363.87   389.24
                              400.46   526.35   621.59   641.23   660.56
                              672.00   699.49   700.67   749.67   753.25
                              788.55   793.66   817.50   924.77   932.55
                              935.86   956.28   958.63   967.01  1096.80
                             1104.33  1125.13  1133.39  1196.85  1322.44
                             1328.65  1443.53  1446.86  1491.96  1492.43
                             1508.70  1515.58  1536.54  1584.67  1591.65
                             1643.37  1661.47  1700.49  1724.14  1882.68
                             1895.51  1912.78  1935.99  1936.86  2115.78
                             2138.73  2184.39  2224.32  2371.71  2386.21
                             2427.19  2436.27  2881.64  2909.05  3039.19
                             4632.38  4633.66  4657.19  4657.91  4671.21
                             4677.54  4678.89  4689.86

 Zero-point correction=                           0.189849 (Hartree/Particle)
 Thermal correction to Energy=                    0.208049
 Thermal correction to Enthalpy=                  0.208993
 Thermal correction to Gibbs Free Energy=         0.141489
 Sum of electronic and zero-point Energies=          -1374.505176
 Sum of electronic and thermal Energies=             -1374.486976
 Sum of electronic and thermal Enthalpies=           -1374.486032
 Sum of electronic and thermal Free Energies=        -1374.553536

                     E (Thermal)             CV                S
                      KCal/Mol        Cal/Mol-Kelvin    Cal/Mol-Kelvin
 Total                  130.553             66.417            142.075
 Electronic               0.000              0.000              0.000
 Translational            0.889              2.981             44.280
 Rotational               0.889              2.981             34.047
 Vibrational            128.775             60.455             63.748
 Vibration     1          0.594              1.982              5.381
 Vibration     2          0.595              1.979              4.982
 Vibration     3          0.598              1.968              4.133
 Vibration     4          0.601              1.960              3.788
 Vibration     5          0.601              1.958              3.718
 Vibration     6          0.603              1.954              3.578
 Vibration     7          0.603              1.953              3.548
 Vibration     8          0.603              1.951              3.507
 Vibration     9          0.605              1.946              3.384
 Vibration    10          0.609              1.932              3.096
 Vibration    11          0.625              1.880              2.442
 Vibration    12          0.636              1.845              2.165
 Vibration    13          0.638              1.838              2.120
 Vibration    14          0.664              1.758              1.710
 Vibration    15          0.674              1.727              1.593
 Vibration    16          0.679              1.714              1.544
 Vibration    17          0.739              1.543              1.097
 Vibration    18          0.793              1.400              0.852
 Vibration    19          0.805              1.370              0.809
 Vibration    20          0.817              1.341              0.769
 Vibration    21          0.824              1.323              0.746
 Vibration    22          0.842              1.281              0.694
 Vibration    23          0.843              1.279              0.691
 Vibration    24          0.876              1.203              0.608
 Vibration    25          0.878              1.198              0.602
 Vibration    26          0.903              1.144              0.548
 Vibration    27          0.907              1.136              0.541
 Vibration    28          0.924              1.100              0.508

 Normal termination of Gaussian 16 at Mon Nov 15 17:54:21 2021.
